 Gaussian 16, Revision A.03,
 Gaussian 16:  ES64L-G16RevA.03 25-Dec-2016

 ------------------------------------------------------------------
 #p opt=(modredundant,maxcycle=512) wb97xd/6-31g(d,p) integral=fine
 ------------------------------------------------------------------

 ----------
 water scan
 ----------
 Symbolic Z-matrix:
 Charge =  0 Multiplicity = 1

 SCF Done:  E(RwB97XD) =  -76.3695339089     A.U. after   12 cycles
 SCF Done:  E(RwB97XD) =  -76.3835297591     A.U. after   14 cycles
 SCF Done:  E(RwB97XD) =  -76.3835867312     A.U. after    8 cycles
 SCF Done:  E(RwB97XD) =  -76.3835874004     A.U. after    8 cycles
 Optimization completed.
    -- Stationary point found.
 SCF Done:  E(RwB97XD) =  -76.2725772040     A.U. after   11 cycles
 SCF Done:  E(RwB97XD) =  -76.2736472446     A.U. after   13 cycles
 SCF Done:  E(RwB97XD) =  -76.2736986562     A.U. after   12 cycles
 Optimization completed.
 SCF Done:  E(RwB97XD) =  -76.1897586316     A.U. after   16 cycles
 SCF Done:  E(RwB97XD) =  -76.1899920730     A.U. after   14 cycles
 SCF Done:  E(RwB97XD) =  -76.1900331049     A.U. after   14 cycles
 SCF Done:  E(RwB97XD) =  -76.1363955684     A.U. after   15 cycles
 SCF Done:  E(RwB97XD) =  -76.1364373339     A.U. after   14 cycles
 SCF Done:  E(RwB97XD) =  -76.1364495017     A.U. after   14 cycles
 SCF Done:  E(RwB97XD) =  -76.1022843452     A.U. after   14 cycles
 SCF Done:  E(RwB97XD) =  -76.1022845168     A.U. after    9 cycles
 SCF Done:  E(RwB97XD) =  -76.1022845718     A.U. after    9 cycles
    -- Stationary point found.
 SCF Done:  E(RwB97XD) =  -76.0809061590     A.U. after   10 cycles
 SCF Done:  E(RwB97XD) =  -76.0809181905     A.U. after   14 cycles
 SCF Done:  E(RwB97XD) =  -76.0809225276     A.U. after   14 cycles
 Optimization completed.
    -- Stationary point found.

                         Standard orientation:
 ---------------------------------------------------------------------
 Center     Atomic      Atomic             Coordinates (Angstroms)
 Number     Number       Type             X           Y           Z
 ---------------------------------------------------------------------
      1          8           0        0.000000   -0.373585   -0.000000
      2          1           0        0.935783    3.102665    0.000000
      3          1           0       -0.935783   -0.113987    0.000000
 ---------------------------------------------------------------------

 The electronic state is 1-A'.
 Alpha  occ. eigenvalues --  -19.30026  -1.04595  -0.51448  -0.37655  -0.33517
 Alpha virt. eigenvalues --   -0.18507   0.18998   0.79425   0.86958   0.95894
 Alpha virt. eigenvalues --    0.98621   0.99017   1.18960   1.65833   1.67360
 Alpha virt. eigenvalues --    1.90176   1.90266   2.04579   2.04591   2.04642

 Mulliken charges:
               1
     1  O   -0.429499
     2  H    0.100938
     3  H    0.328561
 Sum of Mulliken charges =   0.00000

 Dipole moment (field-independent basis, Debye):
    X=             -1.2074    Y=              2.1619    Z=              0.0000  Tot=              2.4762
 Quadrupole moment (field-independent basis, Debye-Ang):
   XX=             -5.1252   YY=             -2.1536   ZZ=             -7.7858
   XY=              1.7924   XZ=              0.0000   YZ=              0.0000

 Normal termination of Gaussian 16 at Sun Jul  9 12:51:42 2023.
