 Gaussian 16, Revision A.03,
 Gaussian 16:  ES64L-G16RevA.03 25-Dec-2016

 --------------------------------------------------------------------
 #p opt=(modredundant,maxcycle=512) 6-31g(d) integral=ultrafine m062x
 --------------------------------------------------------------------

 -------------------------
 Ground-state optimization
 -------------------------
 Symbolic Z-matrix:
 Charge =  0 Multiplicity = 1

 SCF Done:  E(RM062X) =  -463.098442472     A.U. after   13 cycles
 Optimization completed.
    -- Stationary point found.
 SCF Done:  E(RM062X) =  -463.096126614     A.U. after   14 cycles
 SCF Done:  E(RM062X) =  -463.096635668     A.U. after   12 cycles
 SCF Done:  E(RM062X) =  -463.096791118     A.U. after   10 cycles
 SCF Done:  E(RM062X) =  -463.096797981     A.U. after    8 cycles
 SCF Done:  E(RM062X) =  -463.096798216     A.U. after    7 cycles
 Optimization completed.
 SCF Done:  E(RM062X) =  -463.092300469     A.U. after   11 cycles
 SCF Done:  E(RM062X) =  -463.093928290     A.U. after   12 cycles
 SCF Done:  E(RM062X) =  -463.094405281     A.U. after   12 cycles
 SCF Done:  E(RM062X) =  -463.094464829     A.U. after   10 cycles
 SCF Done:  E(RM062X) =  -463.094548322     A.U. after    8 cycles
 SCF Done:  E(RM062X) =  -463.094548544     A.U. after    7 cycles
 SCF Done:  E(RM062X) =  -463.095487882     A.U. after   11 cycles
 SCF Done:  E(RM062X) =  -463.097006018     A.U. after   12 cycles
 SCF Done:  E(RM062X) =  -463.097014893     A.U. after    9 cycles
 SCF Done:  E(RM062X) =  -463.097015033     A.U. after    7 cycles
    -- Stationary point found.
 SCF Done:  E(RM062X) =  -463.097746493     A.U. after   11 cycles
 SCF Done:  E(RM062X) =  -463.098395701     A.U. after   12 cycles
 SCF Done:  E(RM062X) =  -463.098439476     A.U. after   11 cycles
 SCF Done:  E(RM062X) =  -463.098442418     A.U. after    8 cycles
 Optimization completed.
    -- Stationary point found.

                         Standard orientation:
 ---------------------------------------------------------------------
 Center     Atomic      Atomic             Coordinates (Angstroms)
 Number     Number       Type             X           Y           Z
 ---------------------------------------------------------------------
      1          6           0       -2.848669   -1.135390   -0.398920
      2          6           0       -1.457821   -1.134561   -0.399233
      3          6           0       -0.742116    0.000103    0.000142
      4          6           0       -1.457927    1.134652    0.399197
      5          6           0       -2.848919    1.135289    0.398866
      6          6           0       -3.549715   -0.000063    0.000050
      7          6           0        1.457753   -1.134549    0.399169
      8          6           0        2.848738   -1.135359    0.398947
      9          6           0        3.549714   -0.000124    0.000049
     10          6           0        2.848849    1.135325   -0.398836
     11          6           0        1.457993    1.134671   -0.399259
     12          6           0        0.742119    0.000020   -0.000147
     13          1           0       -3.386463   -2.022425   -0.719657
     14          1           0       -0.916083   -2.013689   -0.736779
     15          1           0       -3.386648    2.022427    0.719408
     16          1           0       -4.635243   -0.000277    0.000089
     17          1           0        0.916167   -2.013801    0.736628
     18          1           0        3.386340   -2.022502    0.719697
     19          1           0        4.635242   -0.000094   -0.000018
     20          1           0        3.386772    2.022353   -0.719365
     21          1           0       -0.916480    2.014016    0.736593
     22          1           0        0.916398    2.013914   -0.736740
 ---------------------------------------------------------------------

 The electronic state is 1-A.
 Alpha  occ. eigenvalues --  -10.55802 -10.55758 -10.54984 -10.54984 -10.54962
 Alpha  occ. eigenvalues --  -10.54962 -10.54873 -10.54873 -10.54856 -10.54856
 Alpha  occ. eigenvalues --  -10.54835 -10.54835  -0.97078  -0.94659  -0.87150
 Alpha  occ. eigenvalues --   -0.84300  -0.83474  -0.80998  -0.70394  -0.69875
 Alpha  occ. eigenvalues --   -0.66902  -0.65324  -0.60485  -0.56911  -0.53986
 Alpha  occ. eigenvalues --   -0.52547  -0.50698  -0.49673  -0.48791  -0.48141
 Alpha  occ. eigenvalues --   -0.47976  -0.44259  -0.42369  -0.42210  -0.40678
 Alpha  occ. eigenvalues --   -0.38855  -0.38817  -0.32715  -0.30195  -0.30178
 Alpha  occ. eigenvalues --   -0.27155
 Alpha virt. eigenvalues --    0.00811   0.03388   0.03783   0.07044   0.14178
 Alpha virt. eigenvalues --    0.14364   0.17495   0.19271   0.19786   0.21129
 Alpha virt. eigenvalues --    0.21584   0.22176   0.23149   0.23589   0.24610

 Mulliken charges:
               1
     1  C   -0.167630
     2  C   -0.188753
     3  C    0.053754
     4  C   -0.188806
     5  C   -0.167618
     6  C   -0.160811
     7  C   -0.188808
     8  C   -0.167611
     9  C   -0.160811
    10  C   -0.167638
    11  C   -0.188747
    12  C    0.053753
    13  H    0.164133
    14  H    0.164161
    15  H    0.164135
    16  H    0.163284
    17  H    0.164160
    18  H    0.164133
    19  H    0.163284
    20  H    0.164135
    21  H    0.164149
    22  H    0.164152
 Sum of Mulliken charges =  -0.00000

 Dipole moment (field-independent basis, Debye):
    X=              0.0000    Y=              0.0001    Z=             -0.0001  Tot=              0.0001
 Quadrupole moment (field-independent basis, Debye-Ang):
   XX=            -60.4096   YY=            -62.5097   ZZ=            -74.0686
   XY=              0.0003   XZ=              0.0002   YZ=             -0.0000

 Normal termination of Gaussian 16 at Fri Aug 18 10:44:02 2023.
